-- This file has been generated by tNavigator v19.3m-5185-g293cd502b2a 
-- Copyright (C) RFDynamics 2005-2019.
-- All rights reserved.


SPECGRID
 30 30 5 /

COORD
    2*0   1500    2*0   1525    100      0   1500    100      0   1525    200      0   1500    200      0   1525    300      0
   1500    300      0   1525    400      0   1500    400      0   1525    500      0   1500    500      0   1525    600      0
   1500    600      0   1525    700      0   1500    700      0   1525    800      0   1500    800      0   1525    900      0
   1500    900      0   1525   1000      0   1500   1000      0   1525   1100      0   1500   1100      0   1525   1200      0
   1500   1200      0   1525   1300      0   1500   1300      0   1525   1400      0   1500   1400      0   1525   1500      0
 2*1500      0   1525   1600      0   1500   1600      0   1525   1700      0   1500   1700      0   1525   1800      0   1500
   1800      0   1525   1900      0   1500   1900      0   1525   2000      0   1500   2000      0   1525   2100      0   1500
   2100      0   1525   2200      0   1500   2200      0   1525   2300      0   1500   2300      0   1525   2400      0   1500
   2400      0   1525   2500      0   1500   2500      0   1525   2600      0   1500   2600      0   1525   2700      0   1500
   2700      0   1525   2800      0   1500   2800      0   1525   2900      0   1500   2900      0   1525   3000      0   1500
   3000      0   1525      0    100   1500      0    100   1525  2*100   1500  2*100   1525    200    100   1500    200    100
   1525    300    100   1500    300    100   1525    400    100   1500    400    100   1525    500    100   1500    500    100
   1525    600    100   1500    600    100   1525    700    100   1500    700    100   1525    800    100   1500    800    100
   1525    900    100   1500    900    100   1525   1000    100   1500   1000    100   1525   1100    100   1500   1100    100
   1525   1200    100   1500   1200    100   1525   1300    100   1500   1300    100   1525   1400    100   1500   1400    100
   1525   1500    100 2*1500    100   1525   1600    100   1500   1600    100   1525   1700    100   1500   1700    100   1525
   1800    100   1500   1800    100   1525   1900    100   1500   1900    100   1525   2000    100   1500   2000    100   1525
   2100    100   1500   2100    100   1525   2200    100   1500   2200    100   1525   2300    100   1500   2300    100   1525
   2400    100   1500   2400    100   1525   2500    100   1500   2500    100   1525   2600    100   1500   2600    100   1525
   2700    100   1500   2700    100   1525   2800    100   1500   2800    100   1525   2900    100   1500   2900    100   1525
   3000    100   1500   3000    100   1525      0    200   1500      0    200   1525    100    200   1500    100    200   1525
  2*200   1500  2*200   1525    300    200   1500    300    200   1525    400    200   1500    400    200   1525    500    200
   1500    500    200   1525    600    200   1500    600    200   1525    700    200   1500    700    200   1525    800    200
   1500    800    200   1525    900    200   1500    900    200   1525   1000    200   1500   1000    200   1525   1100    200
   1500   1100    200   1525   1200    200   1500   1200    200   1525   1300    200   1500   1300    200   1525   1400    200
   1500   1400    200   1525   1500    200 2*1500    200   1525   1600    200   1500   1600    200   1525   1700    200   1500
   1700    200   1525   1800    200   1500   1800    200   1525   1900    200   1500   1900    200   1525   2000    200   1500
   2000    200   1525   2100    200   1500   2100    200   1525   2200    200   1500   2200    200   1525   2300    200   1500
   2300    200   1525   2400    200   1500   2400    200   1525   2500    200   1500   2500    200   1525   2600    200   1500
   2600    200   1525   2700    200   1500   2700    200   1525   2800    200   1500   2800    200   1525   2900    200   1500
   2900    200   1525   3000    200   1500   3000    200   1525      0    300   1500      0    300   1525    100    300   1500
    100    300   1525    200    300   1500    200    300   1525  2*300   1500  2*300   1525    400    300   1500    400    300
   1525    500    300   1500    500    300   1525    600    300   1500    600    300   1525    700    300   1500    700    300
   1525    800    300   1500    800    300   1525    900    300   1500    900    300   1525   1000    300   1500   1000    300
   1525   1100    300   1500   1100    300   1525   1200    300   1500   1200    300   1525   1300    300   1500   1300    300
   1525   1400    300   1500   1400    300   1525   1500    300 2*1500    300   1525   1600    300   1500   1600    300   1525
   1700    300   1500   1700    300   1525   1800    300   1500   1800    300   1525   1900    300   1500   1900    300   1525
   2000    300   1500   2000    300   1525   2100    300   1500   2100    300   1525   2200    300   1500   2200    300   1525
   2300    300   1500   2300    300   1525   2400    300   1500   2400    300   1525   2500    300   1500   2500    300   1525
   2600    300   1500   2600    300   1525   2700    300   1500   2700    300   1525   2800    300   1500   2800    300   1525
   2900    300   1500   2900    300   1525   3000    300   1500   3000    300   1525      0    400   1500      0    400   1525
    100    400   1500    100    400   1525    200    400   1500    200    400   1525    300    400   1500    300    400   1525
  2*400   1500  2*400   1525    500    400   1500    500    400   1525    600    400   1500    600    400   1525    700    400
   1500    700    400   1525    800    400   1500    800    400   1525    900    400   1500    900    400   1525   1000    400
   1500   1000    400   1525   1100    400   1500   1100    400   1525   1200    400   1500   1200    400   1525   1300    400
   1500   1300    400   1525   1400    400   1500   1400    400   1525   1500    400 2*1500    400   1525   1600    400   1500
   1600    400   1525   1700    400   1500   1700    400   1525   1800    400   1500   1800    400   1525   1900    400   1500
   1900    400   1525   2000    400   1500   2000    400   1525   2100    400   1500   2100    400   1525   2200    400   1500
   2200    400   1525   2300    400   1500   2300    400   1525   2400    400   1500   2400    400   1525   2500    400   1500
   2500    400   1525   2600    400   1500   2600    400   1525   2700    400   1500   2700    400   1525   2800    400   1500
   2800    400   1525   2900    400   1500   2900    400   1525   3000    400   1500   3000    400   1525      0    500   1500
      0    500   1525    100    500   1500    100    500   1525    200    500   1500    200    500   1525    300    500   1500
    300    500   1525    400    500   1500    400    500   1525  2*500   1500  2*500   1525    600    500   1500    600    500
   1525    700    500   1500    700    500   1525    800    500   1500    800    500   1525    900    500   1500    900    500
   1525   1000    500   1500   1000    500   1525   1100    500   1500   1100    500   1525   1200    500   1500   1200    500
   1525   1300    500   1500   1300    500   1525   1400    500   1500   1400    500   1525   1500    500 2*1500    500   1525
   1600    500   1500   1600    500   1525   1700    500   1500   1700    500   1525   1800    500   1500   1800    500   1525
   1900    500   1500   1900    500   1525   2000    500   1500   2000    500   1525   2100    500   1500   2100    500   1525
   2200    500   1500   2200    500   1525   2300    500   1500   2300    500   1525   2400    500   1500   2400    500   1525
   2500    500   1500   2500    500   1525   2600    500   1500   2600    500   1525   2700    500   1500   2700    500   1525
   2800    500   1500   2800    500   1525   2900    500   1500   2900    500   1525   3000    500   1500   3000    500   1525
      0    600   1500      0    600   1525    100    600   1500    100    600   1525    200    600   1500    200    600   1525
    300    600   1500    300    600   1525    400    600   1500    400    600   1525    500    600   1500    500    600   1525
  2*600   1500  2*600   1525    700    600   1500    700    600   1525    800    600   1500    800    600   1525    900    600
   1500    900    600   1525   1000    600   1500   1000    600   1525   1100    600   1500   1100    600   1525   1200    600
   1500   1200    600   1525   1300    600   1500   1300    600   1525   1400    600   1500   1400    600   1525   1500    600
 2*1500    600   1525   1600    600   1500   1600    600   1525   1700    600   1500   1700    600   1525   1800    600   1500
   1800    600   1525   1900    600   1500   1900    600   1525   2000    600   1500   2000    600   1525   2100    600   1500
   2100    600   1525   2200    600   1500   2200    600   1525   2300    600   1500   2300    600   1525   2400    600   1500
   2400    600   1525   2500    600   1500   2500    600   1525   2600    600   1500   2600    600   1525   2700    600   1500
   2700    600   1525   2800    600   1500   2800    600   1525   2900    600   1500   2900    600   1525   3000    600   1500
   3000    600   1525      0    700   1500      0    700   1525    100    700   1500    100    700   1525    200    700   1500
    200    700   1525    300    700   1500    300    700   1525    400    700   1500    400    700   1525    500    700   1500
    500    700   1525    600    700   1500    600    700   1525  2*700   1500  2*700   1525    800    700   1500    800    700
   1525    900    700   1500    900    700   1525   1000    700   1500   1000    700   1525   1100    700   1500   1100    700
   1525   1200    700   1500   1200    700   1525   1300    700   1500   1300    700   1525   1400    700   1500   1400    700
   1525   1500    700 2*1500    700   1525   1600    700   1500   1600    700   1525   1700    700   1500   1700    700   1525
   1800    700   1500   1800    700   1525   1900    700   1500   1900    700   1525   2000    700   1500   2000    700   1525
   2100    700   1500   2100    700   1525   2200    700   1500   2200    700   1525   2300    700   1500   2300    700   1525
   2400    700   1500   2400    700   1525   2500    700   1500   2500    700   1525   2600    700   1500   2600    700   1525
   2700    700   1500   2700    700   1525   2800    700   1500   2800    700   1525   2900    700   1500   2900    700   1525
   3000    700   1500   3000    700   1525      0    800   1500      0    800   1525    100    800   1500    100    800   1525
    200    800   1500    200    800   1525    300    800   1500    300    800   1525    400    800   1500    400    800   1525
    500    800   1500    500    800   1525    600    800   1500    600    800   1525    700    800   1500    700    800   1525
  2*800   1500  2*800   1525    900    800   1500    900    800   1525   1000    800   1500   1000    800   1525   1100    800
   1500   1100    800   1525   1200    800   1500   1200    800   1525   1300    800   1500   1300    800   1525   1400    800
   1500   1400    800   1525   1500    800 2*1500    800   1525   1600    800   1500   1600    800   1525   1700    800   1500
   1700    800   1525   1800    800   1500   1800    800   1525   1900    800   1500   1900    800   1525   2000    800   1500
   2000    800   1525   2100    800   1500   2100    800   1525   2200    800   1500   2200    800   1525   2300    800   1500
   2300    800   1525   2400    800   1500   2400    800   1525   2500    800   1500   2500    800   1525   2600    800   1500
   2600    800   1525   2700    800   1500   2700    800   1525   2800    800   1500   2800    800   1525   2900    800   1500
   2900    800   1525   3000    800   1500   3000    800   1525      0    900   1500      0    900   1525    100    900   1500
    100    900   1525    200    900   1500    200    900   1525    300    900   1500    300    900   1525    400    900   1500
    400    900   1525    500    900   1500    500    900   1525    600    900   1500    600    900   1525    700    900   1500
    700    900   1525    800    900   1500    800    900   1525  2*900   1500  2*900   1525   1000    900   1500   1000    900
   1525   1100    900   1500   1100    900   1525   1200    900   1500   1200    900   1525   1300    900   1500   1300    900
   1525   1400    900   1500   1400    900   1525   1500    900 2*1500    900   1525   1600    900   1500   1600    900   1525
   1700    900   1500   1700    900   1525   1800    900   1500   1800    900   1525   1900    900   1500   1900    900   1525
   2000    900   1500   2000    900   1525   2100    900   1500   2100    900   1525   2200    900   1500   2200    900   1525
   2300    900   1500   2300    900   1525   2400    900   1500   2400    900   1525   2500    900   1500   2500    900   1525
   2600    900   1500   2600    900   1525   2700    900   1500   2700    900   1525   2800    900   1500   2800    900   1525
   2900    900   1500   2900    900   1525   3000    900   1500   3000    900   1525      0   1000   1500      0   1000   1525
    100   1000   1500    100   1000   1525    200   1000   1500    200   1000   1525    300   1000   1500    300   1000   1525
    400   1000   1500    400   1000   1525    500   1000   1500    500   1000   1525    600   1000   1500    600   1000   1525
    700   1000   1500    700   1000   1525    800   1000   1500    800   1000   1525    900   1000   1500    900   1000   1525
 2*1000   1500 2*1000   1525   1100   1000   1500   1100   1000   1525   1200   1000   1500   1200   1000   1525   1300   1000
   1500   1300   1000   1525   1400   1000   1500   1400   1000   1525   1500   1000 2*1500   1000   1525   1600   1000   1500
   1600   1000   1525   1700   1000   1500   1700   1000   1525   1800   1000   1500   1800   1000   1525   1900   1000   1500
   1900   1000   1525   2000   1000   1500   2000   1000   1525   2100   1000   1500   2100   1000   1525   2200   1000   1500
   2200   1000   1525   2300   1000   1500   2300   1000   1525   2400   1000   1500   2400   1000   1525   2500   1000   1500
   2500   1000   1525   2600   1000   1500   2600   1000   1525   2700   1000   1500   2700   1000   1525   2800   1000   1500
   2800   1000   1525   2900   1000   1500   2900   1000   1525   3000   1000   1500   3000   1000   1525      0   1100   1500
      0   1100   1525    100   1100   1500    100   1100   1525    200   1100   1500    200   1100   1525    300   1100   1500
    300   1100   1525    400   1100   1500    400   1100   1525    500   1100   1500    500   1100   1525    600   1100   1500
    600   1100   1525    700   1100   1500    700   1100   1525    800   1100   1500    800   1100   1525    900   1100   1500
    900   1100   1525   1000   1100   1500   1000   1100   1525 2*1100   1500 2*1100   1525   1200   1100   1500   1200   1100
   1525   1300   1100   1500   1300   1100   1525   1400   1100   1500   1400   1100   1525   1500   1100 2*1500   1100   1525
   1600   1100   1500   1600   1100   1525   1700   1100   1500   1700   1100   1525   1800   1100   1500   1800   1100   1525
   1900   1100   1500   1900   1100   1525   2000   1100   1500   2000   1100   1525   2100   1100   1500   2100   1100   1525
   2200   1100   1500   2200   1100   1525   2300   1100   1500   2300   1100   1525   2400   1100   1500   2400   1100   1525
   2500   1100   1500   2500   1100   1525   2600   1100   1500   2600   1100   1525   2700   1100   1500   2700   1100   1525
   2800   1100   1500   2800   1100   1525   2900   1100   1500   2900   1100   1525   3000   1100   1500   3000   1100   1525
      0   1200   1500      0   1200   1525    100   1200   1500    100   1200   1525    200   1200   1500    200   1200   1525
    300   1200   1500    300   1200   1525    400   1200   1500    400   1200   1525    500   1200   1500    500   1200   1525
    600   1200   1500    600   1200   1525    700   1200   1500    700   1200   1525    800   1200   1500    800   1200   1525
    900   1200   1500    900   1200   1525   1000   1200   1500   1000   1200   1525   1100   1200   1500   1100   1200   1525
 2*1200   1500 2*1200   1525   1300   1200   1500   1300   1200   1525   1400   1200   1500   1400   1200   1525   1500   1200
 2*1500   1200   1525   1600   1200   1500   1600   1200   1525   1700   1200   1500   1700   1200   1525   1800   1200   1500
   1800   1200   1525   1900   1200   1500   1900   1200   1525   2000   1200   1500   2000   1200   1525   2100   1200   1500
   2100   1200   1525   2200   1200   1500   2200   1200   1525   2300   1200   1500   2300   1200   1525   2400   1200   1500
   2400   1200   1525   2500   1200   1500   2500   1200   1525   2600   1200   1500   2600   1200   1525   2700   1200   1500
   2700   1200   1525   2800   1200   1500   2800   1200   1525   2900   1200   1500   2900   1200   1525   3000   1200   1500
   3000   1200   1525      0   1300   1500      0   1300   1525    100   1300   1500    100   1300   1525    200   1300   1500
    200   1300   1525    300   1300   1500    300   1300   1525    400   1300   1500    400   1300   1525    500   1300   1500
    500   1300   1525    600   1300   1500    600   1300   1525    700   1300   1500    700   1300   1525    800   1300   1500
    800   1300   1525    900   1300   1500    900   1300   1525   1000   1300   1500   1000   1300   1525   1100   1300   1500
   1100   1300   1525   1200   1300   1500   1200   1300   1525 2*1300   1500 2*1300   1525   1400   1300   1500   1400   1300
   1525   1500   1300 2*1500   1300   1525   1600   1300   1500   1600   1300   1525   1700   1300   1500   1700   1300   1525
   1800   1300   1500   1800   1300   1525   1900   1300   1500   1900   1300   1525   2000   1300   1500   2000   1300   1525
   2100   1300   1500   2100   1300   1525   2200   1300   1500   2200   1300   1525   2300   1300   1500   2300   1300   1525
   2400   1300   1500   2400   1300   1525   2500   1300   1500   2500   1300   1525   2600   1300   1500   2600   1300   1525
   2700   1300   1500   2700   1300   1525   2800   1300   1500   2800   1300   1525   2900   1300   1500   2900   1300   1525
   3000   1300   1500   3000   1300   1525      0   1400   1500      0   1400   1525    100   1400   1500    100   1400   1525
    200   1400   1500    200   1400   1525    300   1400   1500    300   1400   1525    400   1400   1500    400   1400   1525
    500   1400   1500    500   1400   1525    600   1400   1500    600   1400   1525    700   1400   1500    700   1400   1525
    800   1400   1500    800   1400   1525    900   1400   1500    900   1400   1525   1000   1400   1500   1000   1400   1525
   1100   1400   1500   1100   1400   1525   1200   1400   1500   1200   1400   1525   1300   1400   1500   1300   1400   1525
 2*1400   1500 2*1400   1525   1500   1400 2*1500   1400   1525   1600   1400   1500   1600   1400   1525   1700   1400   1500
   1700   1400   1525   1800   1400   1500   1800   1400   1525   1900   1400   1500   1900   1400   1525   2000   1400   1500
   2000   1400   1525   2100   1400   1500   2100   1400   1525   2200   1400   1500   2200   1400   1525   2300   1400   1500
   2300   1400   1525   2400   1400   1500   2400   1400   1525   2500   1400   1500   2500   1400   1525   2600   1400   1500
   2600   1400   1525   2700   1400   1500   2700   1400   1525   2800   1400   1500   2800   1400   1525   2900   1400   1500
   2900   1400   1525   3000   1400   1500   3000   1400   1525      0 2*1500      0   1500   1525    100 2*1500    100   1500
   1525    200 2*1500    200   1500   1525    300 2*1500    300   1500   1525    400 2*1500    400   1500   1525    500 2*1500
    500   1500   1525    600 2*1500    600   1500   1525    700 2*1500    700   1500   1525    800 2*1500    800   1500   1525
    900 2*1500    900   1500   1525   1000 2*1500   1000   1500   1525   1100 2*1500   1100   1500   1525   1200 2*1500   1200
   1500   1525   1300 2*1500   1300   1500   1525   1400 2*1500   1400   1500   1525 5*1500   1525   1600 2*1500   1600   1500
   1525   1700 2*1500   1700   1500   1525   1800 2*1500   1800   1500   1525   1900 2*1500   1900   1500   1525   2000 2*1500
   2000   1500   1525   2100 2*1500   2100   1500   1525   2200 2*1500   2200   1500   1525   2300 2*1500   2300   1500   1525
   2400 2*1500   2400   1500   1525   2500 2*1500   2500   1500   1525   2600 2*1500   2600   1500   1525   2700 2*1500   2700
   1500   1525   2800 2*1500   2800   1500   1525   2900 2*1500   2900   1500   1525   3000 2*1500   3000   1500   1525      0
   1600   1500      0   1600   1525    100   1600   1500    100   1600   1525    200   1600   1500    200   1600   1525    300
   1600   1500    300   1600   1525    400   1600   1500    400   1600   1525    500   1600   1500    500   1600   1525    600
   1600   1500    600   1600   1525    700   1600   1500    700   1600   1525    800   1600   1500    800   1600   1525    900
   1600   1500    900   1600   1525   1000   1600   1500   1000   1600   1525   1100   1600   1500   1100   1600   1525   1200
   1600   1500   1200   1600   1525   1300   1600   1500   1300   1600   1525   1400   1600   1500   1400   1600   1525   1500
   1600 2*1500   1600   1525 2*1600   1500 2*1600   1525   1700   1600   1500   1700   1600   1525   1800   1600   1500   1800
   1600   1525   1900   1600   1500   1900   1600   1525   2000   1600   1500   2000   1600   1525   2100   1600   1500   2100
   1600   1525   2200   1600   1500   2200   1600   1525   2300   1600   1500   2300   1600   1525   2400   1600   1500   2400
   1600   1525   2500   1600   1500   2500   1600   1525   2600   1600   1500   2600   1600   1525   2700   1600   1500   2700
   1600   1525   2800   1600   1500   2800   1600   1525   2900   1600   1500   2900   1600   1525   3000   1600   1500   3000
   1600   1525      0   1700   1500      0   1700   1525    100   1700   1500    100   1700   1525    200   1700   1500    200
   1700   1525    300   1700   1500    300   1700   1525    400   1700   1500    400   1700   1525    500   1700   1500    500
   1700   1525    600   1700   1500    600   1700   1525    700   1700   1500    700   1700   1525    800   1700   1500    800
   1700   1525    900   1700   1500    900   1700   1525   1000   1700   1500   1000   1700   1525   1100   1700   1500   1100
   1700   1525   1200   1700   1500   1200   1700   1525   1300   1700   1500   1300   1700   1525   1400   1700   1500   1400
   1700   1525   1500   1700 2*1500   1700   1525   1600   1700   1500   1600   1700   1525 2*1700   1500 2*1700   1525   1800
   1700   1500   1800   1700   1525   1900   1700   1500   1900   1700   1525   2000   1700   1500   2000   1700   1525   2100
   1700   1500   2100   1700   1525   2200   1700   1500   2200   1700   1525   2300   1700   1500   2300   1700   1525   2400
   1700   1500   2400   1700   1525   2500   1700   1500   2500   1700   1525   2600   1700   1500   2600   1700   1525   2700
   1700   1500   2700   1700   1525   2800   1700   1500   2800   1700   1525   2900   1700   1500   2900   1700   1525   3000
   1700   1500   3000   1700   1525      0   1800   1500      0   1800   1525    100   1800   1500    100   1800   1525    200
   1800   1500    200   1800   1525    300   1800   1500    300   1800   1525    400   1800   1500    400   1800   1525    500
   1800   1500    500   1800   1525    600   1800   1500    600   1800   1525    700   1800   1500    700   1800   1525    800
   1800   1500    800   1800   1525    900   1800   1500    900   1800   1525   1000   1800   1500   1000   1800   1525   1100
   1800   1500   1100   1800   1525   1200   1800   1500   1200   1800   1525   1300   1800   1500   1300   1800   1525   1400
   1800   1500   1400   1800   1525   1500   1800 2*1500   1800   1525   1600   1800   1500   1600   1800   1525   1700   1800
   1500   1700   1800   1525 2*1800   1500 2*1800   1525   1900   1800   1500   1900   1800   1525   2000   1800   1500   2000
   1800   1525   2100   1800   1500   2100   1800   1525   2200   1800   1500   2200   1800   1525   2300   1800   1500   2300
   1800   1525   2400   1800   1500   2400   1800   1525   2500   1800   1500   2500   1800   1525   2600   1800   1500   2600
   1800   1525   2700   1800   1500   2700   1800   1525   2800   1800   1500   2800   1800   1525   2900   1800   1500   2900
   1800   1525   3000   1800   1500   3000   1800   1525      0   1900   1500      0   1900   1525    100   1900   1500    100
   1900   1525    200   1900   1500    200   1900   1525    300   1900   1500    300   1900   1525    400   1900   1500    400
   1900   1525    500   1900   1500    500   1900   1525    600   1900   1500    600   1900   1525    700   1900   1500    700
   1900   1525    800   1900   1500    800   1900   1525    900   1900   1500    900   1900   1525   1000   1900   1500   1000
   1900   1525   1100   1900   1500   1100   1900   1525   1200   1900   1500   1200   1900   1525   1300   1900   1500   1300
   1900   1525   1400   1900   1500   1400   1900   1525   1500   1900 2*1500   1900   1525   1600   1900   1500   1600   1900
   1525   1700   1900   1500   1700   1900   1525   1800   1900   1500   1800   1900   1525 2*1900   1500 2*1900   1525   2000
   1900   1500   2000   1900   1525   2100   1900   1500   2100   1900   1525   2200   1900   1500   2200   1900   1525   2300
   1900   1500   2300   1900   1525   2400   1900   1500   2400   1900   1525   2500   1900   1500   2500   1900   1525   2600
   1900   1500   2600   1900   1525   2700   1900   1500   2700   1900   1525   2800   1900   1500   2800   1900   1525   2900
   1900   1500   2900   1900   1525   3000   1900   1500   3000   1900   1525      0   2000   1500      0   2000   1525    100
   2000   1500    100   2000   1525    200   2000   1500    200   2000   1525    300   2000   1500    300   2000   1525    400
   2000   1500    400   2000   1525    500   2000   1500    500   2000   1525    600   2000   1500    600   2000   1525    700
   2000   1500    700   2000   1525    800   2000   1500    800   2000   1525    900   2000   1500    900   2000   1525   1000
   2000   1500   1000   2000   1525   1100   2000   1500   1100   2000   1525   1200   2000   1500   1200   2000   1525   1300
   2000   1500   1300   2000   1525   1400   2000   1500   1400   2000   1525   1500   2000 2*1500   2000   1525   1600   2000
   1500   1600   2000   1525   1700   2000   1500   1700   2000   1525   1800   2000   1500   1800   2000   1525   1900   2000
   1500   1900   2000   1525 2*2000   1500 2*2000   1525   2100   2000   1500   2100   2000   1525   2200   2000   1500   2200
   2000   1525   2300   2000   1500   2300   2000   1525   2400   2000   1500   2400   2000   1525   2500   2000   1500   2500
   2000   1525   2600   2000   1500   2600   2000   1525   2700   2000   1500   2700   2000   1525   2800   2000   1500   2800
   2000   1525   2900   2000   1500   2900   2000   1525   3000   2000   1500   3000   2000   1525      0   2100   1500      0
   2100   1525    100   2100   1500    100   2100   1525    200   2100   1500    200   2100   1525    300   2100   1500    300
   2100   1525    400   2100   1500    400   2100   1525    500   2100   1500    500   2100   1525    600   2100   1500    600
   2100   1525    700   2100   1500    700   2100   1525    800   2100   1500    800   2100   1525    900   2100   1500    900
   2100   1525   1000   2100   1500   1000   2100   1525   1100   2100   1500   1100   2100   1525   1200   2100   1500   1200
   2100   1525   1300   2100   1500   1300   2100   1525   1400   2100   1500   1400   2100   1525   1500   2100 2*1500   2100
   1525   1600   2100   1500   1600   2100   1525   1700   2100   1500   1700   2100   1525   1800   2100   1500   1800   2100
   1525   1900   2100   1500   1900   2100   1525   2000   2100   1500   2000   2100   1525 2*2100   1500 2*2100   1525   2200
   2100   1500   2200   2100   1525   2300   2100   1500   2300   2100   1525   2400   2100   1500   2400   2100   1525   2500
   2100   1500   2500   2100   1525   2600   2100   1500   2600   2100   1525   2700   2100   1500   2700   2100   1525   2800
   2100   1500   2800   2100   1525   2900   2100   1500   2900   2100   1525   3000   2100   1500   3000   2100   1525      0
   2200   1500      0   2200   1525    100   2200   1500    100   2200   1525    200   2200   1500    200   2200   1525    300
   2200   1500    300   2200   1525    400   2200   1500    400   2200   1525    500   2200   1500    500   2200   1525    600
   2200   1500    600   2200   1525    700   2200   1500    700   2200   1525    800   2200   1500    800   2200   1525    900
   2200   1500    900   2200   1525   1000   2200   1500   1000   2200   1525   1100   2200   1500   1100   2200   1525   1200
   2200   1500   1200   2200   1525   1300   2200   1500   1300   2200   1525   1400   2200   1500   1400   2200   1525   1500
   2200 2*1500   2200   1525   1600   2200   1500   1600   2200   1525   1700   2200   1500   1700   2200   1525   1800   2200
   1500   1800   2200   1525   1900   2200   1500   1900   2200   1525   2000   2200   1500   2000   2200   1525   2100   2200
   1500   2100   2200   1525 2*2200   1500 2*2200   1525   2300   2200   1500   2300   2200   1525   2400   2200   1500   2400
   2200   1525   2500   2200   1500   2500   2200   1525   2600   2200   1500   2600   2200   1525   2700   2200   1500   2700
   2200   1525   2800   2200   1500   2800   2200   1525   2900   2200   1500   2900   2200   1525   3000   2200   1500   3000
   2200   1525      0   2300   1500      0   2300   1525    100   2300   1500    100   2300   1525    200   2300   1500    200
   2300   1525    300   2300   1500    300   2300   1525    400   2300   1500    400   2300   1525    500   2300   1500    500