-- This file has been generated by tNavigator v19.4m-4990-gf73506a3696.
-- Copyright (C) RFDynamics 2005-2020.
-- All rights reserved.


SPECGRID
 16 12 46 /

PINCH
 1* NOGAP /


MINPV
 250 /
INCLUDE
'INCLUDE/Example2.grdecl' /

INCLUDE
'INCLUDE/Example2_ACTNUM.inc' /

INCLUDE
'INCLUDE/Example2_NTG.inc' /

INCLUDE
'INCLUDE/Example2_PERMX.inc' /

INCLUDE
'INCLUDE/Example2_PERMY.inc' /

INCLUDE
'INCLUDE/Example2_PERMZ.inc' /

INCLUDE
'INCLUDE/Example2_PORO.inc' /

