-- This file has been generated by tNavigator v19.4m-5205-g3e31dd7bc0b.
-- Copyright (C) RFDynamics 2005-2020.
-- All rights reserved.


SPECGRID
 11 11 15 /
INCLUDE
'INCLUDE/Example1.grdecl' /

ACTNUM
     0 120*1   2*0   9*1     0 109*1     0 120*1     0  10*1     0 120*1     0 109*1     0  10*1     0 109*1   3*0   8*1   3*0
   8*1     0  98*1   6*0   5*1   4*0     1     0   5*1   4*0   7*1   2*0   9*1   2*0   9*1     0  67*1   9*0   2*1   9*0     1
  98*0   7*1   4*0   7*1   4*0   4*1   7*0   4*1   7*0   3*1   8*0     1  21*0     1  43*0  21*1     0  19*1     0     1     0
   8*1   3*0   7*1   4*0   5*1   6*0   5*1   6*0   5*1   6*0   2*1   9*0   2*1   9*0  76*1     0   8*1     0     1     0   8*1
   3*0   7*1   4*0   6*1   5*0 363*1
/

PORO
 0.09202315149311358 0.11216474164054913 0.10735097904245628 0.10470242333386337  0.1039243696711567 0.11591024299964148
  0.0879174028254257  0.1033558230501821 0.12897937024477525 0.10803744606772381  0.1047439436484614 0.09321098662172123
 0.10687165238267316 0.10633406977665017 0.09916589901722972 0.10345234496512523 0.09843249063165893 0.11541817953878964
 0.11130389397679319 0.12752245654903095 0.10909817002172506 0.11052641011918429 0.10572139809874637 0.10071044931994222
 0.11120407504815444 0.11692499877350748 0.10672778741137412 0.12498717833797057 0.09243206554428718 0.09404163554857759
 0.11252882357219307 0.11641873329318076 0.09043893036871897 0.10552163331386755  0.1156859421414751 0.11711434052910463
 0.11936357401907083 0.09073898106253076 0.10397017195201297 0.12098018190649529 0.12403261332771387 0.11348051918816471
 0.09877630053736741  0.0808676683012437 0.11823112498061117 0.09927966758115536 0.11513812120222178  0.0909888650414099
 0.11827080208161056 0.11815322684871776 0.09886375679763404 0.09928968548605699 0.09098334663450958 0.10483815892444226
 0.08911890726767324 0.10332123276916572 0.11150915970568187 0.09123053965315742 0.11563839296477308 0.08690899659588136
  0.1178330413307267 0.11020931840716064 0.11038382086933929 0.09133180196153879 0.10918144271109531 0.11869480153483503
 0.09972167413899103  0.0908677587627611  0.1069325866803228 0.10277001231517225 0.10894401860699654  0.1046287776939756
 0.09759338356368908 0.10860255913808237 0.11083861289643693 0.10990487328490217 0.09285110468751778 0.08976981763561187
 0.10382331747117846 0.09879506380484538 0.10936870604705096 0.10316539790404766 0.09086929336462824 0.11012880603098174
 0.10617970996252879 0.11087602413311082 0.10695894838934916 0.10508162864975201 0.11044086482281745 0.11572713964286607
 0.09540175151961972 0.09359279151787403 0.10707571292160823 0.12150999359833459 0.10431612412359259 0.09953798417743043
 0.11920748941786008 0.09829073857123683 0.10909509373871895 0.11825821002908144 0.09753201027578085 0.11190325975547277
  0.1118762331813925 0.09515874080702713 0.09156371402978203 0.10633500493588377 0.10759862308969548 0.10811948558508222
 0.11420490142562367 0.09619824736105676 0.09810251929548919 0.09957500790367169 0.10982973025837839 0.10970687584847894
 0.10242556638073763 0.10041418071531516 0.11304345838318075 0.09535584429141597 0.09615202728775208 0.10125246910163055
 0.10451105047040499 0.09442002848786846 0.11674442903705584  0.0939884800812365 0.11011573666936281 0.11853618363821772
 0.09298295970264259 0.09724153307180572 0.13897996734338093  0.1083104529346619  0.1046382696378001 0.10929154127038166
 0.11730278167000408 0.10510051835890222 0.10301605280606952 0.11017631015962692 0.09579666859714964 0.10116243920401047
 0.10424706811285334 0.11128094208227024 0.10852615408817457 0.10597817044715519 0.10471664012912685 0.09676139883536617
 0.10430401566580527 0.11169635956787283 0.09683079971475706  0.1155891612087736 0.08020539546757677 0.10195444142939314
 0.10895911308865136 0.12772246058717807 0.09177546208948928 0.08307352131900392 0.09300048170439324 0.13539515148522009
 0.11717864533428069 0.11471130276553865 0.10772853439537178 0.09607764573351507       0.11433323085 0.11777572775589529
 0.10889579526373261 0.09870368792130235 0.09967448010972735 0.09479612405370253 0.12165997670281992 0.10438686878610137
 0.09640347415161577 0.11379688220785322 0.10102352133617698 0.09259614114997983 0.10563856823752049 0.10105438092109243
   0.119714327023964 0.09672685494144329 0.10860215421115749 0.09933221627437106 0.10078156568788166 0.10672618820961244
 0.10976128333032787 0.09452006056939988 0.10871031025809552 0.09970986761843337 0.10966001257803249 0.09130654172607877
 0.08999863541242959 0.11036339452259858 0.10164284261116619  0.0949021232452143 0.09972786155945612 0.09547373543550908
 0.10595135562316416 0.10569488343011746 0.11382810576867697  0.1144857290672987 0.08139627826061635  0.1306810252457724
 0.09546510415476983 0.11421956632103636 0.11331997769015057 0.10800379995676446 0.10793167364839662 0.10833573846136169
 0.08678595738091066 0.10011908955931404 0.10486920861480376 0.10372673883988681  0.1034980041019522 0.09843760482765718
 0.10976731058947631 0.08877069839406615 0.09381846137943906  0.1195839108244261  0.1002685941432162 0.09780447400010162
 0.11018286277715417 0.10811518227040962 0.07980520762124455 0.11467407976004052 0.09667372708883204 0.10072468910055665
  0.0996753423516914  0.1201253405970708 0.10455728491947625  0.1223090180286337 0.09474236313995888 0.09593451664049901
  0.0875078891945662  0.1000998514150575 0.08158005888647768 0.09332962901282338   0.073167036705303 0.12261392672018623
 0.11983625357269712 0.11008261631521754 0.09342236072457344 0.11822673651716098   0.103219485682017  0.1065068615704563
 0.11280138164205211 0.12264258309867682 0.10238681350659884 0.11010921658627426 0.09526693883448556 0.10646863917470162
 0.10532101281893813  0.0875919480168521 0.10336357550564857 0.07473657151725832 0.10074932807741943 0.12718957593493997
  0.1032881526751297 0.09606492226971786 0.10547356242689876 0.10565596334875682 0.12194955766463123  0.1081037177388553
 0.09492071749719555 0.09998591436025772 0.10402193415775818 0.12045630880382286  0.0949506247352887 0.10650732610084179
 0.11100664300328478  0.1294917542622236  0.0919102514907375 0.09751262759652635 0.09802944699075833 0.09601769966444795
 0.09158340513389218 0.10796257529504616 0.10507060936333201 0.11339218468050483 0.10039629402736439 0.10222895404247812
 0.12560943955484639 0.10037416355498019 0.12535560811105229 0.10429613722410203 0.09862648884376357 0.10358646086036538
 0.11866470874529833 0.10104824842062388 0.11139866098962026 0.10152218613127362 0.11239430040792487 0.12081499870319301
 0.10294631814141675   0.097129761200623 0.10236245452738779 0.10801708140900868 0.10129000095375984 0.08271716977671329
 0.11353993716479316 0.07476350361609696 0.11415485108608814 0.12171831341634776 0.08099048392880914 0.11473903621635207
 0.12378320274689081 0.10369845497226904 0.11377769765279866 0.10577392455356649 0.10464263686962516    0.09708342665533
 0.08365397286839094 0.08973942119895395 0.12353378384218283 0.09468562050049179  0.1246952853829757 0.08747517217696266
  0.0865194459653813   0.105709682663373 0.09646647919106233 0.10543335321084402 0.09019674336481165 0.10829220293764741
 0.09932844854945544 0.13463803999952263  0.0975051018146671 0.11565804303946448  0.0830863691124284 0.09796867022198952
 0.10426154983281633 0.11424365159443717 0.12560166288747744 0.12027642891148438 0.13094864203768087 0.10635261453004752
 0.09682721578308784 0.12396184116983244 0.09548443058878786 0.10647987792790614 0.13140675951350667 0.09192288912484492
 0.10957164361452399 0.09898761475785745 0.10490688757615563  0.1060573871741961 0.10689131942354124 0.11269848885245693
 0.09880972917711284 0.09413543246208134 0.11517779407807094 0.11253230634733869  0.1018725040802313  0.1258373664161585
 0.09123575763646597 0.10582363919275739 0.11197807751582167 0.11779006282753857 0.09572954658115363 0.10117730174136108
 0.10037968951075627 0.11026442847289198 0.10007249960499865 0.11302593917556347 0.10483781478446774 0.10223126309461184
 0.10944443668818993 0.10323524709017007 0.11327107833670747 0.09716674874313558 0.11183093725453164 0.11408088776750036
  0.0850647067052448 0.09498778380135131  0.1127533333794839 0.09857321047279655 0.11514879084203722 0.11891965824660123
 0.09180156574776355 0.11108935877554172 0.09461626693973524 0.09928834199499082 0.12173257592771214 0.12190523571454315
 0.11598129388747158 0.09846765864770602  0.1085441108073264 0.09393953776417474  0.1058229151156096 0.11253896379004314
 0.11145007084592407 0.09512260139502527 0.11357920877766059 0.11350877258350112 0.11031047064210742 0.11348634925447643
 0.10754383496210318 0.11975319214587343 0.10519745142704462   0.112206293310809 0.09467838628173597 0.10610983725923484
  0.1132635162984652 0.09181948892847336 0.10541088121865361  0.1098645649516774 0.09966805929318956 0.10612942994305863
 0.09246713457364098 0.11227917974504376 0.11962941080595568 0.11029517235956998 0.10200385434341008 0.10176570074963376
 0.09230986773963701 0.10857212403809635 0.12457523393137149 0.10293181831159482 0.09818359926406428 0.12154913509935894
 0.11416578565532554 0.12143710989192958  0.0970540529326751 0.10351304686554497  0.1172542903802345 0.12535677750735009
 0.09222016837247837 0.10051045536821612 0.11203864219612458 0.10130975882388982  0.1051430256450645   0.112803824689645
  0.1116446515512477 0.09594851929393489 0.09952893609092994 0.10656741023717076 0.10453058743701016 0.10418804640950175
 0.09152660328129314 0.09023318105148426 0.09267403300682298 0.10300477511852369   0.097813378146695 0.12230694565523881
  0.1019315937691132 0.10655951182814727 0.08465911218582045 0.11549272076570505  0.1017236043360854 0.08612438984808901
 0.12201505541766067 0.10373683465604544 0.09639832757282885 0.09720367713868838 0.12823235154906754 0.10541769146051827
  0.1023774859901212 0.12528703811871989 0.12258855511526035 0.10441060850535578  0.1290502656819945 0.08822154264330262
 0.11747462346278126 0.10361718411850385 0.12118718891915359 0.10713952407257743 0.09145119803736801 0.10358533836496431
   0.129617645388993 0.11209626989405419  0.1164235902566424 0.11100358121139431 0.08743391071130269 0.11401593615769468
 0.12615970320652515 0.12078847188195297 0.10099055690542658 0.09439949072928067 0.11668199701399695 0.11849383046589224
 0.10245244702638457 0.11121322749546492 0.10314923036964174 0.10251599429750202 0.09994606146432084 0.11681907220290233
 0.10776530641915194 0.09502528886606143 0.11958122737693633   0.111314164469275 0.10040483765051356 0.10736751081900331
 0.12725686003856707 0.08815055569413533 0.10464976308930507 0.09133869060766076 0.09362206738826706 0.09114319414069439
  0.1123351553573384 0.10850093726466526  0.0879556373564605 0.11014746678623544  0.0775566920791213 0.11359469336647643
 0.09968045544240756 0.08118727119465486 0.10326266594508527 0.10811896075271843  0.1133701876176525  0.0910123589434686
 0.10900198421014462 0.09803001525238742 0.10976677627665743 0.12128928484676593 0.10428495574554075    0.09950460322609
 0.10295423668300319 0.11623998629837651 0.10099116657259222 0.12109635548861597  0.1025727688077478 0.10111872486164586
 0.08812177352884088 0.08473921681958152 0.08043669652422847 0.11059443599520047 0.08318441829375134 0.09448340203465389
 0.09117899300558952  0.0977693001325457  0.1099706479010254 0.12054694372122477 0.11702952737171812 0.09288061142636983
 0.10696971264444977 0.11904103721500126 0.10090680503405203 0.12845524405351139 0.08278128411992758 0.11737198933990567
 0.09709463064778645 0.10670781819897379 0.10991613907289266 0.08781616928011582   0.102934532072112 0.10355224647877992
 0.12124167309961975 0.08621947938093522 0.09979968152435048  0.1040344313118704 0.10765561583551242 0.10892226566725838
 0.10736347413981218 0.10549170863390822 0.12024139067186135 0.09851032609798516 0.08630776475744884 0.11478799391001937
  0.1217432734632573 0.11719143857731207 0.12391142649809295 0.10884232293262408  0.1085797478020658 0.10079502826593556
 0.08595543850906529  0.1044479668795919 0.11237596277900552 0.10504215975481435 0.11682573225008453 0.11460794299814325
   0.090830499732379 0.11570370368587901 0.09292464309383153 0.09834561778287321 0.10879416202950076 0.12114389575405849
 0.08917702152616558 0.09884381301665646 0.11777015990175866  0.0816538814023886 0.12316967269752599 0.08985059224004322
 0.11139232806567612 0.11505243311099012 0.12470236284292824 0.10828260075737872  0.1079677372667378 0.12570150333955699
 0.10827777776584902 0.09608563831935202  0.0877413314440263  0.1150516927545362 0.11836086338812813 0.09668693048288724
 0.10160171483304814 0.10373353562988319  0.0983205711951014 0.09994565625463192 0.11187652988813235  0.1172666413442407
 0.08959676708130271 0.09480979763641684 0.07892462447103843 0.10741371797926291 0.10007867209139732 0.11537344566629027
  0.1006832819573702 0.09702118297240747 0.09447347526434569 0.10388819901339486 0.10708955855540303 0.09558476606224575
 0.11324706425446296  0.1272373596130607 0.10347859448338848 0.11278267591123403 0.11262664499090192 0.08405426263431193
 0.09986330314593528  0.1258146824612718 0.10689903815682467 0.10884528849235409 0.11433686923186204 0.10405533915616672
 0.10381342022721918 0.08986543298376892  0.0964192336425389 0.12837873977884874  0.1083509215188414 0.11599351606104347
 0.07587376773912813 0.10114704096956362 0.11156229148239594 0.11473124550143088 0.10102602928765547 0.09902657194478559
 0.08630139942590787  0.1072542456386456 0.09994778978913477 0.11405063207292288 0.10402037175593249 0.10302150964652945
 0.11000921141282594 0.10061101386980975  0.0993663505413247 0.11019246711367292 0.11533803302188295   0.095592445610172
 0.09739872952407791 0.09089314254595027 0.11490266662494175 0.08318699693018195 0.09351198947033268 0.10180258848454615
 0.10477699176968103 0.10720587517595215  0.0893132642966108 0.09418301221693515  0.0974410523449789 0.12069280116729653
 0.09903662372559397 0.10234638524532658 0.09346305506894703 0.12489037792319446 0.09904756989675656 0.09918225878859755
 0.09723284124665122   0.100288444558154 0.11853734604331345 0.11193009302099322 0.10102264438517916 0.10776123979815378
 0.10896283749895219  0.0842766938907542  0.1187957388603107 0.07899395371477347 0.09850885424903844 0.11181995056284389
 0.10873963385878405  0.1249482775690196  0.1018609139186577 0.10714419519058494  0.0929771074211867  0.1086170911316886
 0.11427732888032272 0.09707903789170724  0.1107231300954783 0.10144329323049029   0.096358314103282 0.11265308235097482
  0.1084847558328963 0.08378470387822357 0.10432233633527277 0.10980745227195876 0.10637329796189477 0.09473625354896909
 0.11407352308627061 0.10721428786802023 0.09613866475123922 0.09619353702348255 0.10373788801362638 0.11159551966894688
 0.11362185001027192  0.0866350612342579  0.1077518331493621 0.08748480241823553 0.10042320120774284 0.09739856644428868
  0.0863859520095227 0.10098520743253081 0.10548814879784785 0.10334951277048465 0.09345608204268041 0.10338025729320299
 0.10298283817278131  0.1063578935853906 0.11412628667710867 0.10339884307975766 0.10367425671190112 0.08739491901944319
 0.10976111599509575 0.11744457237936734 0.08486608510023808 0.08658188323797722 0.11040844891555102 0.07967186826452677
 0.11836208388197145 0.07981179534078509 0.09945111634766923 0.09432225501082714 0.09343674988364503 0.10352782991745713
 0.11167112269083646 0.10919579328610674 0.09489686947976961 0.10124146819655167 0.10999051518369552 0.10767590285178486
 0.08454658144333016 0.10564118207171447 0.10032959188257995 0.09869785508383267  0.0841396861290098 0.11753420921143265
 0.12349604890952293 0.11104096613715298  0.1317040649257457 0.11123541334239984 0.09529614483940341 0.09572588586702291
 0.10946344647106798 0.11059439482983802  0.0880162238483333 0.10985353064550085 0.11778698929456466 0.09614439633103422
 0.11486411139258879 0.10651101589765033 0.10073631766928504 0.09727365028972623 0.10263982159804286 0.10621379186854396
 0.08752725091273117  0.0843077869415585 0.10328236088324983 0.11321404029434601 0.10230358396041806 0.12480388671631593
 0.11493470496145841 0.10999079908382004 0.10498704529627223 0.09343735383343965 0.09042739817848067 0.10338826665644452
 0.10026967860583147 0.09847874382580813 0.10955421477520022 0.11284889919432639 0.10552281988573964  0.1023327755527601
 0.10361944163007864 0.09686288194279835 0.10908028895480793 0.11944322690085629 0.10129560608680777 0.11414762446302485
 0.09899200876796788 0.11993208117979393  0.1274751513669068 0.09883947731232934 0.11917897628580598 0.10973232508241449
  0.1024518551439968 0.10961427293348658    0.10588871282571 0.09495545220229085 0.11731116733299896 0.09932358005262732
 0.10641181618506957  0.0880279313208352 0.11664683333025439  0.0846378821302105  0.1273895161043217  0.1024373271303578
 0.10076286297472748 0.09530368016607649  0.1130120383829869 0.09256127548459503  0.1134208739126239 0.11549648496287524
 0.12058537651484169  0.1158380824745866 0.11535250595089664 0.10203212096384151 0.08584212419462167 0.07787262839652565
 0.10532371627687409 0.08299859919396169 0.09949944241195108 0.10870143154816869 0.10863775322399638  0.0987249194849571
 0.10932072765245504 0.10664313967399086 0.10117768559519735 0.08320525742063323 0.11619552625071128  0.0809971900398283
  0.0828616597570413 0.12163139500767062  0.0942219534117148  0.1181045242541483 0.11693124681472034 0.09937318760474145
 0.10800316123521858 0.09661521821222352 0.09893329969654152 0.12263586465676402 0.10620423843401983  0.1142542218467637
 0.09823514206232664 0.11534321249985702  0.1083802434774166 0.11270334575189112 0.11244584529009938 0.10244153478494811
 0.11139844122802734 0.10901859296120487 0.11875998436576385 0.11231423812890351 0.09919887992422183 0.11027264086385214
 0.09064907976323777  0.0830132481111181  0.0883009804759658 0.10091531942768106 0.08850853177402884 0.10608677570648739
 0.09512034523897262 0.11122260046572286 0.12056976351897109 0.11729769035705351 0.10530129849612413 0.11752381628164988
  0.1046798723860336 0.09989008870410032 0.10571650635476648 0.09685236448765777 0.11832662623791679 0.08750616158137059
 0.09449850526176751 0.10357411494043856 0.10875495882983977  0.0874454456743996   0.107318467192689 0.09903445196328709
 0.10860471264979022 0.11907634807002143 0.10294538534703768 0.13056394758053647  0.1047906059692747 0.10617784258368435
 0.09836552348487682 0.09550960962706334 0.10704296621764575 0.10325676715358068 0.09563652464042805 0.09072473224487876
 0.10739266254269175 0.09673570237523355 0.10539364362987569  0.0913978389019221 0.10298929819568081 0.09333362657742184
 0.11112667655397757 0.09397513306176642 0.09698765606398596 0.09877410086267768 0.09787191842481935 0.10259244086770081
 0.10878920753030697 0.09997375912915851 0.12053476389578166 0.10453648098700774 0.10617685435043467 0.10990521232016959
 0.09221131677055583 0.12354525186332977 0.10911150762266875 0.11442715153584793 0.10191825623414297 0.09637522863090209
 0.10618563223977895 0.10958100665503978 0.10153641935099089 0.11302883941784092 0.11282472085095341 0.09644486172297096
 0.10393982571741667 0.12454675752716749 0.10005702579640907 0.10296441949646806 0.10981867952640734 0.09702309843220714
 0.10147601459315392 0.10854726990753005 0.10897274367331589 0.10647873082098114  0.1080578104463843 0.09572834076600589
 0.11675766288752354 0.09419259446482942 0.11174041110810418  0.0932096562629412 0.10320107796952072 0.10750665490707956
 0.12143229725707894 0.10099138316927903 0.11270356685078054  0.0967633458454753 0.10404036359761659 0.09318234340564269
 0.09555415161872327 0.10838874555060985 0.08634791015462296 0.10595140628087885  0.1054107554630519 0.10700020396174415
 0.10913398169344335 0.10453188311843009   0.099087423660293 0.08684910927128886 0.11040924137925057 0.09560205889094475
 0.10406199925765636   0.107439160294035 0.10590117250350684 0.10896059591912644 0.08844508773534043 0.09772452292047129
 0.09186200410226508 0.10901276933355364 0.09339934336391287 0.10551487899264789 0.08854941668055294 0.10179686970521784
 0.10915008952219974 0.11202641935633207 0.11025777970436801 0.09359864410780095 0.10236933404081605 0.10226988506403245
 0.11790494453169975 0.10627627793351002 0.11275343844781283 0.10108601514854443 0.10293183369341197 0.10518138686067769
 0.10169676790080118 0.10542666849635563 0.09478463586204078 0.10610376403907207 0.10087852300267764 0.11781104275859167
 0.11153617777690239 0.09461871674239264 0.09375466356063123 0.10578232400084842 0.11169128456815747 0.09141037119091289
 0.10504311984639769 0.10038797884613549 0.11330936839491934 0.11626179611144649 0.09692569118443029 0.09363426414489884
 0.10080023599749555 0.09654576353444067 0.09538837096822994 0.10810382240499395 0.09525867515027353 0.08695621734789749
  0.1143454169501632 0.11086622407168156 0.11584912408786341 0.11244400373981889  0.1012787034881737 0.11272653906125196
 0.10273591929102555 0.12725691004848817 0.08315806211541133  0.1147338693151645 0.11031232259416446  0.1046563120688151
 0.10348849693531426  0.1006458167006341 0.09537147744186014  0.1112898068012802 0.11287013379371791 0.10314786917662944
 0.10594981834714235 0.11033377610494033 0.11059508251089367 0.09348968027520077 0.09998289467018395 0.10799971001763331
 0.09838789746862431    0.10262458703778   0.091600292866852 0.09929232232939045 0.09796444838805396 0.10329503806650076
 0.11249688362272692 0.10293809873665683 0.11450452445518322 0.10399256064141604 0.09491435199925214  0.1224843729652354
 0.10967798069239399 0.09687208560251048 0.10941096041712473 0.09371743944115418 0.09877760526740054   0.110354348487115
 0.08258019515970872  0.1059624033512101 0.11663243146869862 0.11498714589409787 0.09364141971983497 0.10217680810333807
 0.12268022505671583 0.10128910617744969 0.10310068608002321 0.10713665859073007 0.09446333721367228 0.11212111158279692
 0.10419639019734906 0.09079686256128872 0.09465142238242108 0.11639331516056073 0.13373208340899146 0.10374130570026541
 0.09114904038073313 0.11391450116967783 0.11285193973984553 0.10015716573930767 0.11847697154284753   0.109816811861001
 0.11415449673546241 0.08965173340587263  0.1111566422175263 0.09626136184825063 0.07733641750859044  0.1311207814338231
 0.10620207003211246 0.11684797746291098 0.10504909491888137 0.10525393858870658 0.10821363354424474 0.11690908511848819
 0.09992314013545523 0.08526682425745747 0.10204477035323412 0.12156090708677825 0.12261849033330608 0.09946375934900376
 0.10390053406371558  0.0993995344434977  0.0959542248882519  0.1145380748726399 0.11707806081720307 0.10714563791795295
 0.10119742917151675 0.11499206369567094 0.10762497009894001 0.11615938811196403 0.10482481906749608  0.1086370440743567
 0.10302100060770059 0.09966574330210643 0.09158619195606521 0.10412522736481078 0.10272867767857874 0.07135761066849966
 0.09080163382014739 0.10999396537932649 0.10102718390744237 0.09982327031052285    0.09921948373446 0.09218123207757523
 0.10079897308234354 0.07901475078271903 0.13209580571747993 0.11088092814928064 0.10057809045364596 0.11024263540923696
 0.11164765757016237 0.08904159432130454 0.11856651151130215 0.09301908347069032 0.11100456820384408 0.10845436621889393
 0.09434510947844088 0.09220743372488505 0.09502149370904989 0.09418613696568024 0.10866492557541396 0.07404794961600692
 0.11461671946708951 0.11166715011678563 0.09473321306480487 0.09972088006605806 0.10540222667108212 0.10821409268010229
 0.11376725677601818 0.11796174983902685  0.1080612236166476 0.10981406603525934 0.10161337859291098  0.1058204784968435
 0.12046624598577793  0.0979913532497878 0.12076810772826319 0.09592435989341808 0.09696733451683426 0.10085283516865706
  0.1043732744672301 0.09505003237490817 0.11458936546600485 0.11352856292806135      0.100449654881 0.11061302108607762
 0.10906195477244163 0.11582493090714086 0.10433340381915057  0.0963424291793109 0.11685114786724493  0.1152889245394233
  0.1347419381227144   0.097785096419575 0.11357462217864845 0.11028284170896274 0.10567754793475892 0.11310626219448139
 0.11222515605220029  0.1094626873463369 0.12220791077971849 0.10939948931688903 0.12483858774710166 0.11845944639265493
 0.12069580178434758 0.10914032187431033 0.10771995952166425 0.10770347214644627 0.09429058754170483 0.10246106779105446
  0.1153493742522882 0.10795394424990734  0.1058792123147394 0.09908958024204018 0.11687146685172256 0.10049067395178257
 0.09816134058416859 0.08977879376668407 0.08765527896543635 0.10948254888781439 0.10436633649643668   0.120988429802942
 0.11419420117721746 0.10933726627673135 0.09749856509410449 0.11282319171098498 0.09396722915607803 0.10085857318535174
 0.10709102841005569 0.11028525650720989 0.11485972791930332 0.11514460516479952 0.11695762444034697  0.0969818428621474
 0.11295776545847525 0.11241270792329883 0.09481479553073702 0.11257983816562445  0.1168458797728209  0.1294555281828087
 0.09414027082207754 0.11297670472197141 0.07926997017959425 0.12384261367968597 0.09648575902222256 0.11803263462890934
 0.11699164617485258 0.12269269553589712 0.08047370965048972 0.11742642673222381 0.10004752186267996 0.09607544093873322
 0.13655657164081903 0.11947892130070903 0.09227015255738813 0.09753065680702311 0.10747939168946341  0.0916719637372525
 0.10426547923358309 0.12095779237756377 0.12282475648276425 0.11550133691524245 0.11189204796499119  0.1027174873710539
 0.09064105633875186 0.10691797505271139  0.1136763983649498 0.12130721861125982 0.09638383527662509 0.09741272312138816
 0.09291683907203052 0.10375641650770184 0.09568357207124456 0.11458344265352194 0.10836350547550655 0.11401889832915369
 0.11442276271436947 0.10663921494951856 0.11068389371642606 0.10390752714884299 0.11960406649655164  0.1041258391562141
 0.08692146624523245 0.10357416111951357 0.09503756273524222 0.09747881679965165 0.09034580565571004 0.11729106746984597
 0.10171198318490715 0.11383799793644545  0.1071536467014802 0.11279039027797189 0.09988148512678441  0.1125427120832585
  0.0898511052605735 0.10752139360074042 0.10465382083997987 0.11195928541223244 0.10193352870786754 0.11034549275830141
 0.11296160643214015 0.11387286239244787 0.10975095869720564 0.11546628418760574 0.10462662336543982 0.10319083602985502
 0.08957679557279441 0.11411973403316345 0.11480943968089008 0.09676069776881624 0.09842789943878305   0.093693836478413
 0.10484733629700105 0.10335575104195982  0.0953888106152605 0.11183363392473922 0.09767112773716647 0.10908136881795394
 0.11405613161716666 0.10949244194942165 0.09084782701948835 0.11343544674826456 0.08087844753568763 0.08553105578964004
 0.12047251504789758 0.11953050513988362 0.10696016401238051  0.1041067237125688 0.11241834943446172 0.10330076724954496
 0.08905386968056384  0.1187657280859935 0.12012097002951938 0.09277682390066766 0.09594762891561648 0.09514733675608311
 0.09906100162058862 0.10420426567504238 0.09986989391753265  0.1074529862828284 0.09322954422535079 0.10521911172842491
 0.09521633959077103 0.13853632425488938  0.1236486183026686 0.08880721207156528 0.08861894153299344 0.09974506611790335
 0.09211822462564534 0.09564881378972157 0.10792625416911839 0.10764988196573788 0.09394366453951775 0.11113283032905996
 0.10091494888449981  0.1040211935024582 0.10980278646041142 0.09250741739654833 0.08891103996684247 0.10824923771154227
 0.10814381280405527 0.10502267158207435 0.09246475927620179 0.08822748934218194 0.11149033684279708  0.1110920880817372
 0.11383719006421167 0.10294189209981775 0.10105732305393622 0.12296700038543218  0.1045273808668965 0.11116023324214353
 0.09169669727790741 0.11607522409799298  0.0836865076708102 0.10385720154557254 0.09705882080525674 0.14314009522801997
 0.09954741553308488 0.09796267475662646 0.11670475814636627  0.1083447079336397 0.10284352675923558 0.11350686115689923
 0.09895472038513176 0.12207410314103418 0.09806048282646995 0.08784243811818349 0.11149364545186624 0.10366213281190162
 0.10888661649369813 0.11034048237182348 0.10972462528555838 0.11608452923192747 0.10933743247328232 0.09028858656332428
 0.11394060613842472 0.10899806006852275 0.11242504834706857 0.11396486474318346 0.10037130761645408 0.10892231129638219
 0.09390341707467531     0.1104788003735 0.08107475732872938 0.10488540862219886 0.10875674002404035 0.09612423413810323
 0.10447362050807319 0.11437818018185353 0.11560560351686888 0.10182480293353535 0.12734290109456837  0.1238540102963499
  0.1306759771502961  0.0962830133076722 0.11355324555713709 0.11683771192254033 0.10367134351177243 0.09864062858559142
 0.10695710173615192 0.10366292923098586  0.0895363629017587 0.11113426145523087 0.13400908996933093 0.10722081218655322
 0.09743110621817564 0.12725031396626397  0.1141036954674457 0.11380084989590866 0.11543228799522476 0.09922486212352544
 0.11030766611016674  0.1129747876769649 0.10999858166005638 0.10307493537372636  0.1050948404109191 0.09779709600607589
 0.08325663204903355 0.11895336391628075 0.11056310357348776 0.12902114904551888 0.09685612678556499  0.1309095438847634
 0.11366524412213197 0.10152162319329605  0.1016745465826907 0.10328526449938536 0.10382404466240125 0.09619231683074259
 0.11273373405204823  0.1144775325874492 0.11354326068801513 0.09114175952812964 0.09215609491789123 0.10043248677553396
 0.10858520361458846 0.11204087377248606 0.10992835853219907 0.09046384650258488 0.09854817621460455 0.10516751753155251
 0.09977109600598699 0.10178367112141107 0.11019012790886462 0.12467066137795802  0.0934185062553452 0.08586667886958455
   0.119404546664575 0.11336256828485847 0.09860980317438473 0.12467626500602069 0.09953537375843325 0.10664538183390304
 0.08458396319796235 0.10484781730962611 0.09829446421914989 0.09731589088197135 0.09821636056604866 0.10804502206270228
 0.10909761781161409 0.09025520720239655 0.09394830250333342  0.1047844227719461 0.09669946831375032 0.10961914549028595