-- This file has been generated by tNavigator v20.2-1881-ge809d19754c.
-- Copyright (C) RFDynamics 2005-2020.
-- All rights reserved.

SPECGRID
11 11 15 1 F /

COORDSYS
1 15 /

COORD
                2*0  2002.639075866641                2*0               2030                100                  0
 2002.5356759661033                100                  0               2030                200                  0
 2000.8228663431696                200                  0               2030                300                  0
 1998.8436265255798                300                  0 2029.9977946897677                400                  0
 1996.7482270906607                400                  0   2029.98019789311                500                  0
 1995.6197146238885                500                  0 2029.7879242980327                600                  0
 1995.7090602870524                600                  0  2029.667464385388                700                  0
 1996.3793558186292                700                  0 2029.8346559012034                800                  0
 1998.1229951885864                800                  0 2029.8434065162423                900                  0
 2000.2068989240668                900                  0 2029.6774576027733               1000                  0
  1999.687318598375               1000                  0  2029.737136245225               1100                  0
 1999.9363336089882               1100                  0 2029.9557076369042                  0                100
 2002.6108186462263                  0                100               2030              2*100 2002.2298698559507
              2*100 2029.9954693104623                200                100 2000.7428899430206                200
                100 2029.9272083563908                300                100 1998.5091433292987                300
                100 2029.8568414028834                400                100 1995.4585178875996                400
                100 2029.3824015560908                500                100  1993.308039285868                500
                100 2028.5004125804942                600                100 1992.6388428471705                600
                100 2028.1394764524648                700                100 1994.1088597552666                700
                100 2028.5931849624408                800                100 1993.4256867944375                800
                100   2028.96552072343                900                100 1995.2412435946696                900
                100 2028.8937614550564               1000                100  2000.403212042978               1000
                100 2029.0378272596683               1100                100 1999.9174943317648               1100
                100  2029.584937245877                  0                200  2001.868913064099                  0
                200 2029.9994764355274                100                200 2001.7014823757816                100
                200 2029.8650164272547              2*200 2000.1591943952174              2*200 2029.6295754180287
                300                200 1997.9851915873412                300                200 2029.3893686120239
                400                200 1994.3027854924146                400                200 2028.4045998228341
                500                200  1991.577978114172                500                200 2026.4205963598386
                600                200 1991.9047629660402                600                200 2026.1568169807572
                700                200 1992.7575746560788                700                200 2027.3032828514517
                800                200 1992.7294722590866                800                200 2027.9508418920632
                900                200 1994.9114063972297                900                200   2028.10410099585
               1000                200 1998.8064234396704               1000                200  2028.166044646724
               1100                200 1999.9339971390639               1100                200 2029.0495039142097
                  0                300  2000.637745728595                  0                300  2029.974085702682
                100                300 2000.0503808918902                100                300  2029.727346436171
                200                300 1997.9430985171277                200                300 2029.2742843287479
              2*300 1997.0554276324365              2*300 2028.8689303730816                400                300
 1996.2574946371412                400                300  2027.649204767332                500                300
 1992.4181697149677                500                300  2025.898546838888                600                300
 1991.8177924301353                600                300  2026.003137652042                700                300
  1992.226871764478                700                300 2026.8457250771148                800                300
 1993.3413642590092                800                300 2027.2656997302158                900                300
 1995.4818392149762                900                300 2027.0412334681655               1000                300
 1999.4845808453865               1000                300 2027.1487346584265               1100                300
  1999.958962080618               1100                300 2028.4060338485122                  0                400
  1999.156206061607                  0                400 2029.9783124306591                100                400
 1998.3400413272302                100                400 2029.7433807165698                200                400
 1995.6219823884683                200                400 2029.1715420514931                300                400
  1994.703601897906                300                400 2028.2015944502452              2*400 1994.7418739744087
              2*400  2027.064698898052                500                400 1992.3799623441028                500
                400 2026.4927096638362                600                400 1991.1010504698354                600
                400 2026.8088672137812                700                400 1991.6366815747085                700
                400 2027.1678529390288                800                400 1994.3028794893794                800
                400 2026.5357833753492                900                400 1997.4850233819243                900
                400  2026.065223416853               1000                400   1999.34774584102               1000
                400 2026.3184341942813               1100                400 1999.9674130292035               1100
                400 2027.7421447482393                  0                500     1998.925046774                  0
                500               2030                100                500 1998.0541938995893                100
                500 2029.8951815164855                200                500 1996.3744380392966                200
                500   2029.37253805517                300                500 1995.2839273321383                300
                500 2027.9714746543525                400                500  1993.396372306423                400
                500 2026.6510556738642              2*500 1991.5302628913323              2*500 2026.4401134846094
                600                500  1991.336014682116                600                500 2027.2409152757298
                700                500 1992.4056582865885                700                500 2027.3744817190814
                800                500  1994.588841411444                800                500  2026.471112332281
                900                500 1997.5150251985788                900                500 2025.8279238691118
               1000                500 1999.2369468113225               1000                500 2026.1021592205136
               1100                500 1999.9521020098377               1100                500 2027.5628384412926
                  0                600 2000.0447068292428                  0                600 2030.0005268212983
                100                600  1999.124070531061                100                600 2029.9999993146569
                200                600 1998.0377548975796                200                600  2029.706760002317
                300                600 1996.3215665875475                300                600  2028.433965190046
                400                600 1994.1811465269977                400                600 2026.5669548845942
                500                600 1992.7054522282474                500                600 2026.1931887186554
              2*600 1992.7816462041553              2*600 2027.4719225646127                700                600
 1993.6125543731391                700                600 2027.6386295789582                800                600
 1995.5516932459618                800                600  2026.878769978151                900                600
 1997.9676252840732                900                600 2026.9840448239065               1000                600
 1999.5503381968836               1000                600  2027.706938629108               1100                600
 2000.1510807049413               1100                600 2028.5702304782462                  0                700
 2002.2700680021417                  0                700  2030.645138129149                100                700
  2001.810940311256                100                700 2030.5038949963864                200                700
 2000.0242218241306                200                700 2030.1322794893097                300                700
 1998.2492468876212                300                700 2029.2995468072597                400                700
 1996.2991338908837                400                700  2028.209447785103                500                700
 1994.9642580512557                500                700 2027.7610624694355                600                700
 1994.9355836424384                600                700 2028.0742408955139              2*700 1995.7723132835981
              2*700 2028.2112238802408                800                700 1997.4221552058343                800
                700  2028.080577239163                900                700 1999.6602743713188                900
                700 2028.9705061317277               1000                700  2001.222084708622               1000
                700 2029.7379638845064               1100                700  2001.423531492544               1100
                700 2029.9988784746713                  0                800 2004.2909647832932                  0
                800  2032.025406929306                100                800 2005.0618979493531                100
                800  2031.741635546224                200                800 2003.2097793898686                200
                800 2030.9561257483276                300                800    2000.5997558049                300
                800 2029.8788558126407                400                800 1999.0135954364225                400
                800 2028.7268328555592                500                800 1998.0732707492227                500
                800 2028.0806040070531                600                800 1997.7445674689927                600
                800  2028.262325548649                700                800 1998.3090567868855                700
                800 2028.9665558480224              2*800 2000.4008297716834              2*800  2029.947409292972
                900                800  2003.049376000304                900                800 2030.9300272546097
               1000                800 2004.6073366177563               1000                800 2031.5123468665795
               1100                800  2004.434643192312               1100                800  2031.574702145615
                  0                900 2005.6801122111426                  0                900 2033.4284457814629
                100                900    2005.7318712199                100                900 2033.0089822793555
                200                900 2004.2716661065188                200                900  2031.792839609637
                300                900 2002.0441685430885                300                900  2029.999113691828
                400                900  2000.264637334247                400                900 2028.2853473770033
                500                900  1999.449854795819                500                900 2027.2105107518223
                600                900 1999.4238559617536                600                900 2027.4086669724616
                700                900  2000.375146081249                700                900  2029.356620153095
                800                900  2003.083465740145                800                900 2030.9448090985359
              2*900 2006.1303618694724              2*900 2032.1447726213194               1000                900
 2008.3113747922712               1000                900 2032.9173748316553               1100                900
 2007.6678952640907               1100                900 2032.8662954477636                  0               1000
  2008.083752553774                  0               1000  2034.152944950879                100               1000
 2007.6894838832309                100               1000 2034.1526908661342                200               1000
 2003.9088640521607                200               1000 2032.1743279966277                300               1000
 2001.6930721239319                300               1000 2030.0965624740727                400               1000
 2000.1786023531536                400               1000   2028.31080246538                500               1000
 1999.9594158945054                500               1000 2027.6888975023617                600               1000
  2000.040731965689                600               1000 2027.9873935833123                700               1000
 2001.2317185749787                700               1000 2029.6744493958704                800               1000
  2004.233282656716                800               1000 2031.3436146267693                900               1000
 2008.1012671773346                900               1000 2032.6816689419456             2*1000 2010.5384611964396
             2*1000 2033.7569781795987               1100               1000 2012.4868949301804               1100
               1000 2033.7569781795987                  0               1100 2007.7130766242594                  0
               1100  2034.152944950879                100               1100  2007.752113239273                100
               1100  2034.152944950879                200               1100 2002.9265611415192                200
               1100 2031.9044520271307                300               1100 2000.9742594203135                300
               1100 2030.2089344533406                400               1100  2000.014320104165                400
               1100   2028.80796559768                500               1100               2000                500
               1100 2028.5165347293423                600               1100 2000.0559806666945                600
               1100 2029.1186408492733                700               1100 2001.1463059354717                700
               1100 2029.9598077500266                800               1100 2003.8583152585916                800
               1100 2031.1840714252407                900               1100  2007.459225516613                900
               1100 2032.4170134648812               1000               1100 2012.4048698489207               1000
               1100 2033.7569781795987             2*1100  2011.769030737364             2*1100 2033.7569781795987 /

ZCORN
    2002.639075866641 2*2002.5356759661033 2*2000.8228663431696 2*1998.8436265255798 2*1996.7482270906607 2*1995.6197146238885
 2*1995.7090602870524 2*1996.3793558186292 2*1998.1229951885864 2*2000.2068989240668  2*1999.687318598375   1999.9363336089882
   2002.6108186462263 2*2002.2298698559507 2*2000.7428899430206 2*1998.5091433292987 2*1995.4585178875996  2*1993.308039285868
 2*1992.6388428471705 2*1994.1088597552666 2*1993.4256867944375 2*1995.2412435946696  2*2000.403212042978   1999.9174943317648
   2002.6108186462263 2*2002.2298698559507 2*2000.7428899430206 2*1998.5091433292987 2*1995.4585178875996  2*1993.308039285868
 2*1992.6388428471705 2*1994.1088597552666 2*1993.4256867944375 2*1995.2412435946696  2*2000.403212042978   1999.9174943317648
    2001.868913064099 2*2001.7014823757816 2*2000.1591943952174 2*1997.9851915873412 2*1994.3027854924146  2*1991.577978114172
 2*1991.9047629660402 2*1992.7575746560788 2*1992.7294722590866 2*1994.9114063972297 2*1998.8064234396704   1999.9339971390639
    2001.868913064099 2*2001.7014823757816 2*2000.1591943952174 2*1997.9851915873412 2*1994.3027854924146  2*1991.577978114172
 2*1991.9047629660402 2*1992.7575746560788 2*1992.7294722590866 2*1994.9114063972297 2*1998.8064234396704   1999.9339971390639
    2000.637745728595 2*2000.0503808918902 2*1997.9430985171277 2*1997.0554276324365 2*1996.2574946371412 2*1992.4181697149677
 2*1991.8177924301353  2*1992.226871764478 2*1993.3413642590092 2*1995.4818392149762 2*1999.4845808453865    1999.958962080618
    2000.637745728595 2*2000.0503808918902 2*1997.9430985171277 2*1997.0554276324365 2*1996.2574946371412 2*1992.4181697149677
 2*1991.8177924301353  2*1992.226871764478 2*1993.3413642590092 2*1995.4818392149762 2*1999.4845808453865    1999.958962080618
    1999.156206061607 2*1998.3400413272302 2*1995.6219823884683  2*1994.703601897906 2*1994.7418739744087 2*1992.3799623441028
 2*1991.1010504698354 2*1991.6366815747085 2*1994.3028794893794 2*1997.4850233819243   2*1999.34774584102   1999.9674130292035
    1999.156206061607 2*1998.3400413272302 2*1995.6219823884683  2*1994.703601897906 2*1994.7418739744087 2*1992.3799623441028
 2*1991.1010504698354 2*1991.6366815747085 2*1994.3028794893794 2*1997.4850233819243   2*1999.34774584102   1999.9674130292035
       1998.925046774 2*1998.0541938995893 2*1996.3744380392966 2*1995.2839273321383  2*1993.396372306423 2*1991.5302628913323
  2*1991.336014682116 2*1992.4056582865885  2*1994.588841411444 2*1997.5150251985788 2*1999.2369468113225   1999.9521020098377
       1998.925046774 2*1998.0541938995893 2*1996.3744380392966 2*1995.2839273321383  2*1993.396372306423 2*1991.5302628913323
  2*1991.336014682116 2*1992.4056582865885  2*1994.588841411444 2*1997.5150251985788 2*1999.2369468113225   1999.9521020098377
   2000.0447068292428  2*1999.124070531061 2*1998.0377548975796 2*1996.3215665875475 2*1994.1811465269977 2*1992.7054522282474
 2*1992.7816462041553 2*1993.6125543731391 2*1995.5516932459618 2*1997.9676252840732 2*1999.5503381968836   2000.1510807049413
   2000.0447068292428  2*1999.124070531061 2*1998.0377548975796 2*1996.3215665875475 2*1994.1811465269977 2*1992.7054522282474
 2*1992.7816462041553 2*1993.6125543731391 2*1995.5516932459618 2*1997.9676252840732 2*1999.5503381968836   2000.1510807049413
   2002.2700680021417  2*2001.810940311256 2*2000.0242218241306 2*1998.2492468876212 2*1996.2991338908837 2*1994.9642580512557
 2*1994.9355836424384 2*1995.7723132835981 2*1997.4221552058343 2*1999.6602743713188  2*2001.222084708622    2001.423531492544
   2002.2700680021417  2*2001.810940311256 2*2000.0242218241306 2*1998.2492468876212 2*1996.2991338908837 2*1994.9642580512557
 2*1994.9355836424384 2*1995.7723132835981 2*1997.4221552058343 2*1999.6602743713188  2*2001.222084708622    2001.423531492544
   2004.2909647832932 2*2005.0618979493531 2*2003.2097793898686    2*2000.5997558049 2*1999.0135954364225 2*1998.0732707492227
 2*1997.7445674689927 2*1998.3090567868855 2*2000.4008297716834  2*2003.049376000304 2*2004.6073366177563    2004.434643192312
   2004.2909647832932 2*2005.0618979493531 2*2003.2097793898686    2*2000.5997558049 2*1999.0135954364225 2*1998.0732707492227
 2*1997.7445674689927 2*1998.3090567868855 2*2000.4008297716834  2*2003.049376000304 2*2004.6073366177563    2004.434643192312
   2005.6801122111426    2*2005.7318712199 2*2004.2716661065188 2*2002.0441685430885  2*2000.264637334247  2*1999.449854795819
 2*1999.4238559617536  2*2000.375146081249  2*2003.083465740145 2*2006.1303618694724 2*2008.3113747922712   2007.6678952640907
   2005.6801122111426    2*2005.7318712199 2*2004.2716661065188 2*2002.0441685430885  2*2000.264637334247  2*1999.449854795819
 2*1999.4238559617536  2*2000.375146081249  2*2003.083465740145 2*2006.1303618694724 2*2008.3113747922712   2007.6678952640907
    2008.083752553774 2*2007.6894838832309 2*2003.9088640521607 2*2001.6930721239319 2*2000.1786023531536 2*1999.9594158945054
  2*2000.040731965689 2*2001.2317185749787  2*2004.233282656716 2*2008.1012671773346 2*2010.5384611964396   2012.4868949301804
    2008.083752553774 2*2007.6894838832309 2*2003.9088640521607 2*2001.6930721239319 2*2000.1786023531536 2*1999.9594158945054
  2*2000.040731965689 2*2001.2317185749787  2*2004.233282656716 2*2008.1012671773346 2*2010.5384611964396   2012.4868949301804
   2007.7130766242594  2*2007.752113239273 2*2002.9265611415192 2*2000.9742594203135  2*2000.014320104165               2*2000
 2*2000.0559806666945 2*2001.1463059354717 2*2003.8583152585916  2*2007.459225516613 2*2012.4048698489207    2011.769030737364
   2004.4631374755315 2*2004.3666309016965 2*2002.7680085869583  2*2000.920571069859  2*1998.963691810824 2*1997.8975952688315
  2*1997.972953893608 2*1998.6097091574675 2*2000.2376892770967 2*2002.1716028359806 2*2001.6906397748317   2001.9376252108493
   2004.4367640698113 2*2004.0809098195848 2*2002.6885111705787 2*2000.5989898675377 2*1997.7201101321657 2*1995.6541975055097
   2*1995.00555175419 2*1996.4078147690782 2*1995.7950090563704 2*1997.4847447853622 2*2002.3121863907575   2001.8953238593724
   2004.4367640698113 2*2004.0809098195848 2*2002.6885111705787 2*2000.5989898675377 2*1997.7201101321657 2*1995.6541975055097
   2*1995.00555175419 2*1996.4078147690782 2*1995.7950090563704 2*1997.4847447853622 2*2002.3121863907575   2001.8953238593724
   2003.7442839555274 2*2003.5790513125464 2*2002.1238864634047 2*2000.0788033889867 2*1996.5762397811093   2*1993.90081933055
  2*1994.188233233688 2*1995.0606218691037 2*1995.0775635679518 2*1997.1242527038044 2*2000.7637315201407   2001.8750309240736
   2003.7442839555274 2*2003.5790513125464 2*2002.1238864634047 2*2000.0788033889867 2*1996.5762397811093   2*1993.90081933055
  2*1994.188233233688 2*1995.0606218691037 2*1995.0775635679518 2*1997.1242527038044 2*2000.7637315201407   2001.8750309240736
   2002.5935017268675 2*2002.0288452615089 2*2000.0318442379023 2*1999.1763278151461 2*1998.3502753124872 2*1994.6501948565624
 2*1994.0968154449292 2*1994.5347953186538 2*1995.6029866237564 2*1997.5857988318555 2*2001.3288577662559   2001.8554337597539
   2002.5935017268675 2*2002.0288452615089 2*2000.0318442379023 2*1999.1763278151461 2*1998.3502753124872 2*1994.6501948565624
 2*1994.0968154449292 2*1994.5347953186538 2*1995.6029866237564 2*1997.5857988318555 2*2001.3288577662559   2001.8554337597539
    2001.211013152877 2*2000.4335972865197 2*1997.8586196993365 2*1996.9368014013953 2*1996.8967289693182 2*1994.6541454987516
 2*1993.4815715860984   2*1994.00542633233  2*1996.451739748444   2*1999.39083891096 2*2001.1517523086816   2001.8288190885849
    2001.211013152877 2*2000.4335972865197 2*1997.8586196993365 2*1996.9368014013953 2*1996.8967289693182 2*1994.6541454987516
 2*1993.4815715860984   2*1994.00542633233  2*1996.451739748444   2*1999.39083891096 2*2001.1517523086816   2001.8288190885849
    2000.996710322399 2*2000.1769264073823 2*1998.5743113736883 2*1997.4630971536194 2*1995.6133511975856 2*1993.8575862642176
 2*1993.7296747216903  2*1994.736913182088 2*1996.7143261394997  2*1999.409168580762  2*2001.048377280617   2001.8211516954314
    2000.996710322399 2*2000.1769264073823 2*1998.5743113736883 2*1997.4630971536194 2*1995.6133511975856 2*1993.8575862642176
 2*1993.7296747216903  2*1994.736913182088 2*1996.7143261394997  2*1999.409168580762  2*2001.048377280617   2001.8211516954314
     2002.04176149538 2*2001.1824657833008  2*2000.149021904562 2*1998.4623931610472  2*1996.340200417504 2*1994.9379679942747
 2*1995.0943312948525 2*1995.8809593868605 2*1997.6402880003434 2*1999.9135146001845 2*2001.4681120553942   2002.0869605716673
     2002.04176149538 2*2001.1824657833008  2*2000.149021904562 2*1998.4623931610472  2*1996.340200417504 2*1994.9379679942747
 2*1995.0943312948525 2*1995.8809593868605 2*1997.6402880003434 2*1999.9135146001845 2*2001.4681120553942   2002.0869605716673
   2004.1617393439421 2*2003.7238039569313 2*2002.0314256684758 2*2000.3192668822637 2*1998.4264881504982 2*1997.1507116791342
 2*1997.1448274593101 2*1997.9349073233743 2*1999.4660500080563 2*2001.6228814603348 2*2003.1654030245986     2003.37085089346
   2004.1617393439421 2*2003.7238039569313 2*2002.0314256684758 2*2000.3192668822637 2*1998.4264881504982 2*1997.1507116791342
 2*1997.1448274593101 2*1997.9349073233743 2*1999.4660500080563 2*2001.6228814603348 2*2003.1654030245986     2003.37085089346
   2006.1399275930273 2*2006.8405471224778 2*2005.0595358137657 2*2002.5516958054159 2*2000.9944779310317  2*2000.073759633078
  2*1999.779084674303  2*2000.352890057628 2*2002.3706017397694 2*2004.9095293923383 2*2006.4105930028297    2006.258155239889
   2006.1399275930273 2*2006.8405471224778 2*2005.0595358137657 2*2002.5516958054159 2*2000.9944779310317  2*2000.073759633078
  2*1999.779084674303  2*2000.352890057628 2*2002.3706017397694 2*2004.9095293923383 2*2006.4105930028297    2006.258155239889
   2007.5300011158306 2*2007.5503452905302 2*2006.1064110067266 2*2003.9078315530046 2*2002.1326846704308 2*2001.3005651928859
 2*2001.2895100291341 2*2002.3072443527055 2*2004.9408886307044 2*2007.8646559195954 2*2009.9517905417772   2009.3483055251108
   2007.5300011158306 2*2007.5503452905302 2*2006.1064110067266 2*2003.9078315530046 2*2002.1326846704308 2*2001.3005651928859
 2*2001.2895100291341 2*2002.3072443527055 2*2004.9408886307044 2*2007.8646559195954 2*2009.9517905417772   2009.3483055251108
    2009.821698713581 2*2009.4536976820912 2*2005.7932283151251 2*2003.5866381472747 2*2002.0540823606352 2*2001.8080480016959
 2*2001.9038427401972 2*2003.1279006297048 2*2006.0406381213863 2*2009.7399606283086 2*2012.0863623286502   2013.9049004801416
    2009.821698713581 2*2009.4536976820912 2*2005.7932283151251 2*2003.5866381472747 2*2002.0540823606352 2*2001.8080480016959
 2*2001.9038427401972 2*2003.1279006297048 2*2006.0406381213863 2*2009.7399606283086 2*2012.0863623286502   2013.9049004801416
   2009.4757345127007 2*2009.5121686867135 2*2004.8584205338932 2*2002.9232377558487 2*2001.9338964703995 2*2001.9011023152896
 2*2001.9934913455331  2*2003.067206056442 2*2005.6800323363682 2*2009.1230780464975 2*2013.8283437376326   2013.2348939001795
   2004.4631374755315 2*2004.3666309016965 2*2002.7680085869583  2*2000.920571069859  2*1998.963691810824 2*1997.8975952688315
  2*1997.972953893608 2*1998.6097091574675 2*2000.2376892770967 2*2002.1716028359806 2*2001.6906397748317   2001.9376252108493
   2004.4367640698113 2*2004.0809098195848 2*2002.6885111705787 2*2000.5989898675377 2*1997.7201101321657 2*1995.6541975055097
   2*1995.00555175419 2*1996.4078147690782 2*1995.7950090563704 2*1997.4847447853622 2*2002.3121863907575   2001.8953238593724
   2004.4367640698113 2*2004.0809098195848 2*2002.6885111705787 2*2000.5989898675377 2*1997.7201101321657 2*1995.6541975055097
   2*1995.00555175419 2*1996.4078147690782 2*1995.7950090563704 2*1997.4847447853622 2*2002.3121863907575   2001.8953238593724
   2003.7442839555274 2*2003.5790513125464 2*2002.1238864634047 2*2000.0788033889867 2*1996.5762397811093   2*1993.90081933055
  2*1994.188233233688 2*1995.0606218691037 2*1995.0775635679518 2*1997.1242527038044 2*2000.7637315201407   2001.8750309240736
   2003.7442839555274 2*2003.5790513125464 2*2002.1238864634047 2*2000.0788033889867 2*1996.5762397811093   2*1993.90081933055
  2*1994.188233233688 2*1995.0606218691037 2*1995.0775635679518 2*1997.1242527038044 2*2000.7637315201407   2001.8750309240736
   2002.5935017268675 2*2002.0288452615089 2*2000.0318442379023 2*1999.1763278151461 2*1998.3502753124872 2*1994.6501948565624
 2*1994.0968154449292 2*1994.5347953186538 2*1995.6029866237564 2*1997.5857988318555 2*2001.3288577662559   2001.8554337597539
   2002.5935017268675 2*2002.0288452615089 2*2000.0318442379023 2*1999.1763278151461 2*1998.3502753124872 2*1994.6501948565624
 2*1994.0968154449292 2*1994.5347953186538 2*1995.6029866237564 2*1997.5857988318555 2*2001.3288577662559   2001.8554337597539
    2001.211013152877 2*2000.4335972865197 2*1997.8586196993365 2*1996.9368014013953 2*1996.8967289693182 2*1994.6541454987516
 2*1993.4815715860984   2*1994.00542633233  2*1996.451739748444   2*1999.39083891096 2*2001.1517523086816   2001.8288190885849
    2001.211013152877 2*2000.4335972865197 2*1997.8586196993365 2*1996.9368014013953 2*1996.8967289693182 2*1994.6541454987516
 2*1993.4815715860984   2*1994.00542633233  2*1996.451739748444   2*1999.39083891096 2*2001.1517523086816   2001.8288190885849
    2000.996710322399 2*2000.1769264073823 2*1998.5743113736883 2*1997.4630971536194 2*1995.6133511975856 2*1993.8575862642176